/*--------------------------------*- C++ -*----------------------------------*\
| =========                 |                                                 |
| \\      /  F ield         | OpenFOAM: The Open Source CFD Toolbox           |
|  \\    /   O peration     | Version:  2.4.x                                 |
|   \\  /    A nd           | Web:      www.OpenFOAM.org                      |
|    \\/     M anipulation  |                                                 |
\*---------------------------------------------------------------------------*/
FoamFile
{
    version     2.0;
    format      ascii;
    class       volScalarField;
    location    "0/fuel";
    object      Q;
}
// * * * * * * * * * * * * * * * * * * * * * * * * * * * * * * * * * * * * * //

dimensions      [ 1 -1 -3 0 0 0 0 ];

internalField   nonuniform List<scalar> 
181195
(
1.88047e+06
3.59557e+06
5.18035e+06
6.65914e+06
8.04215e+06
9.33539e+06
1.05409e+07
1.16586e+07
1.26863e+07
1.36202e+07
1.44554e+07
1.51873e+07
1.58111e+07
1.63234e+07
1.67224e+07
1.70066e+07
1.71751e+07
1.7227e+07
1.71623e+07
1.69816e+07
1.66859e+07
1.62765e+07
1.57553e+07
1.51244e+07
1.43873e+07
1.35485e+07
1.26132e+07
1.1586e+07
1.04706e+07
9.26952e+06
7.98265e+06
6.60791e+06
5.13923e+06
3.56635e+06
1.86495e+06
1.93276e+06
3.64376e+06
5.25446e+06
6.757e+06
8.16128e+06
9.47404e+06
1.06976e+07
1.1832e+07
1.28752e+07
1.3823e+07
1.46708e+07
1.54136e+07
1.60466e+07
1.65666e+07
1.69715e+07
1.72599e+07
1.74308e+07
1.74835e+07
1.74179e+07
1.72346e+07
1.69344e+07
1.6519e+07
1.599e+07
1.53497e+07
1.46015e+07
1.37502e+07
1.2801e+07
1.17584e+07
1.06264e+07
9.40728e+06
8.10093e+06
6.70502e+06
5.21275e+06
3.61417e+06
1.9168e+06
1.99051e+06
3.66794e+06
5.28172e+06
6.79199e+06
8.20452e+06
9.5251e+06
1.07558e+07
1.18968e+07
1.2946e+07
1.38992e+07
1.47518e+07
1.54988e+07
1.61354e+07
1.66582e+07
1.70652e+07
1.73552e+07
1.7527e+07
1.758e+07
1.7514e+07
1.73296e+07
1.70279e+07
1.66102e+07
1.60784e+07
1.54345e+07
1.46821e+07
1.3826e+07
1.28713e+07
1.18226e+07
1.06841e+07
9.45782e+06
8.14376e+06
6.73968e+06
5.23975e+06
3.63811e+06
1.97407e+06
1.89496e+06
3.60422e+06
5.19155e+06
6.67371e+06
8.06e+06
9.35629e+06
1.05646e+07
1.16849e+07
1.2715e+07
1.3651e+07
1.44882e+07
1.52217e+07
1.5847e+07
1.63605e+07
1.67603e+07
1.70452e+07
1.7214e+07
1.7266e+07
1.72012e+07
1.70201e+07
1.67237e+07
1.63135e+07
1.57911e+07
1.51588e+07
1.44199e+07
1.35792e+07
1.26417e+07
1.16121e+07
1.04942e+07
9.29026e+06
8.00035e+06
6.62235e+06
5.15034e+06
3.57493e+06
1.87931e+06
1.80858e+06
3.55588e+06
5.13466e+06
6.60065e+06
7.97025e+06
9.25079e+06
1.04446e+07
1.15516e+07
1.25695e+07
1.34945e+07
1.43218e+07
1.50468e+07
1.56647e+07
1.61724e+07
1.65678e+07
1.68495e+07
1.70164e+07
1.70678e+07
1.70038e+07
1.68248e+07
1.65317e+07
1.61261e+07
1.56096e+07
1.49846e+07
1.42543e+07
1.34236e+07
1.24972e+07
1.14798e+07
1.03752e+07
9.18568e+06
7.91141e+06
6.54997e+06
5.09399e+06
3.52705e+06
1.79368e+06
1.90998e+06
3.63078e+06
5.23758e+06
6.73506e+06
8.13442e+06
9.44257e+06
1.06619e+07
1.17924e+07
1.2832e+07
1.37765e+07
1.46214e+07
1.53617e+07
1.59926e+07
1.65108e+07
1.69143e+07
1.72018e+07
1.73722e+07
1.74247e+07
1.73593e+07
1.71766e+07
1.68774e+07
1.64634e+07
1.59362e+07
1.5298e+07
1.45524e+07
1.3704e+07
1.2758e+07
1.1719e+07
1.05909e+07
9.37603e+06
8.07428e+06
6.68327e+06
5.19602e+06
3.6013e+06
1.89422e+06
1.64769e+06
3.41558e+06
4.95012e+06
6.3614e+06
7.67804e+06
8.90921e+06
1.00574e+07
1.11224e+07
1.21017e+07
1.29916e+07
1.37876e+07
1.44852e+07
1.508e+07
1.5569e+07
1.59499e+07
1.62212e+07
1.63821e+07
1.64317e+07
1.63701e+07
1.61976e+07
1.59154e+07
1.55247e+07
1.50273e+07
1.44256e+07
1.37229e+07
1.29236e+07
1.20323e+07
1.10535e+07
9.99084e+06
8.84678e+06
7.62158e+06
6.31274e+06
4.91105e+06
3.388e+06
1.63418e+06
1.9855e+06
3.65799e+06
5.26361e+06
6.76776e+06
8.17515e+06
9.49108e+06
1.07175e+07
1.18545e+07
1.28999e+07
1.38498e+07
1.46994e+07
1.54437e+07
1.60781e+07
1.6599e+07
1.70046e+07
1.72936e+07
1.74648e+07
1.75175e+07
1.74517e+07
1.7268e+07
1.69674e+07
1.65512e+07
1.60213e+07
1.53797e+07
1.46299e+07
1.37768e+07
1.28254e+07
1.17805e+07
1.0646e+07
9.424e+06
8.11458e+06
6.71561e+06
5.22177e+06
3.62822e+06
1.96909e+06
1.90351e+06
3.62162e+06
5.22258e+06
6.71521e+06
8.11033e+06
9.41461e+06
1.06303e+07
1.17575e+07
1.2794e+07
1.37358e+07
1.45782e+07
1.53162e+07
1.59453e+07
1.6462e+07
1.68643e+07
1.71509e+07
1.73208e+07
1.73731e+07
1.73079e+07
1.71257e+07
1.68275e+07
1.64147e+07
1.5889e+07
1.52528e+07
1.45093e+07
1.36635e+07
1.27203e+07
1.16843e+07
1.05596e+07
9.34824e+06
8.05035e+06
6.66357e+06
5.18114e+06
3.5922e+06
1.8878e+06
1.96981e+06
3.65046e+06
5.25476e+06
6.75641e+06
8.16116e+06
9.47453e+06
1.06986e+07
1.18335e+07
1.28771e+07
1.38252e+07
1.46733e+07
1.54163e+07
1.60495e+07
1.65695e+07
1.69744e+07
1.72628e+07
1.74338e+07
1.74864e+07
1.74208e+07
1.72375e+07
1.69373e+07
1.65219e+07
1.59928e+07
1.53524e+07
1.46039e+07
1.37524e+07
1.28029e+07
1.17599e+07
1.06274e+07
9.40776e+06
8.10077e+06
6.70437e+06
5.21298e+06
3.62078e+06
1.95353e+06
1.63071e+06
3.39967e+06
4.93022e+06
6.33586e+06
7.64684e+06
8.87271e+06
1.0016e+07
1.10764e+07
1.20516e+07
1.29377e+07
1.37304e+07
1.44251e+07
1.50174e+07
1.55043e+07
1.58837e+07
1.6154e+07
1.63141e+07
1.63636e+07
1.63022e+07
1.61305e+07
1.58494e+07
1.54602e+07
1.49649e+07
1.43658e+07
1.3666e+07
1.28701e+07
1.19826e+07
1.10079e+07
9.94974e+06
8.81056e+06
7.59065e+06
6.28742e+06
4.89134e+06
3.37224e+06
1.61734e+06
1.78579e+06
3.53702e+06
5.1089e+06
6.56705e+06
7.92922e+06
9.20287e+06
1.03903e+07
1.14914e+07
1.2504e+07
1.3424e+07
1.4247e+07
1.49681e+07
1.55828e+07
1.60879e+07
1.64812e+07
1.67615e+07
1.69275e+07
1.69787e+07
1.6915e+07
1.67369e+07
1.64454e+07
1.60418e+07
1.5528e+07
1.49063e+07
1.41799e+07
1.33535e+07
1.24321e+07
1.142e+07
1.03213e+07
9.13812e+06
7.8707e+06
6.51664e+06
5.06845e+06
3.50836e+06
1.77109e+06
1.79565e+06
3.54615e+06
5.12176e+06
6.58387e+06
7.94973e+06
9.22679e+06
1.04174e+07
1.15214e+07
1.25366e+07
1.34591e+07
1.42843e+07
1.50073e+07
1.56236e+07
1.613e+07
1.65243e+07
1.68053e+07
1.69718e+07
1.70231e+07
1.69592e+07
1.67807e+07
1.64884e+07
1.60838e+07
1.55687e+07
1.49453e+07
1.4217e+07
1.33884e+07
1.24646e+07
1.14498e+07
1.03482e+07
9.16187e+06
7.89105e+06
6.53333e+06
5.08119e+06
3.51741e+06
1.78086e+06
1.88423e+06
3.61268e+06
5.21237e+06
6.70208e+06
8.09413e+06
9.39551e+06
1.06086e+07
1.17333e+07
1.27676e+07
1.37073e+07
1.45479e+07
1.52844e+07
1.59122e+07
1.64278e+07
1.68293e+07
1.71154e+07
1.72849e+07
1.73371e+07
1.72721e+07
1.70902e+07
1.67926e+07
1.63806e+07
1.58561e+07
1.52211e+07
1.44793e+07
1.36352e+07
1.26941e+07
1.16603e+07
1.0538e+07
9.32932e+06
8.03431e+06
6.65056e+06
5.17103e+06
3.58336e+06
1.86868e+06
1.67974e+06
3.44794e+06
4.99281e+06
6.41664e+06
7.74546e+06
8.98799e+06
1.01467e+07
1.12213e+07
1.22095e+07
1.31075e+07
1.39108e+07
1.46146e+07
1.52148e+07
1.5708e+07
1.60923e+07
1.6366e+07
1.65283e+07
1.65783e+07
1.65161e+07
1.63422e+07
1.60574e+07
1.56633e+07
1.51615e+07
1.45544e+07
1.38454e+07
1.30389e+07
1.21395e+07
1.11518e+07
1.00794e+07
8.92492e+06
7.68844e+06
6.36752e+06
4.95338e+06
3.42007e+06
1.66595e+06
1.9457e+06
3.6538e+06
5.26966e+06
6.77708e+06
8.18578e+06
9.5026e+06
1.07299e+07
1.18678e+07
1.29142e+07
1.38649e+07
1.47152e+07
1.54603e+07
1.60952e+07
1.66168e+07
1.70228e+07
1.73122e+07
1.74836e+07
1.75364e+07
1.74706e+07
1.72867e+07
1.69857e+07
1.6569e+07
1.60384e+07
1.53962e+07
1.46457e+07
1.37919e+07
1.28397e+07
1.17939e+07
1.06585e+07
9.4356e+06
8.12524e+06
6.72495e+06
5.22784e+06
3.62412e+06
1.92964e+06
1.96856e+06
3.6522e+06
5.2581e+06
6.76085e+06
8.16654e+06
9.48082e+06
1.07057e+07
1.18413e+07
1.28855e+07
1.38343e+07
1.46829e+07
1.54263e+07
1.606e+07
1.65803e+07
1.69855e+07
1.72741e+07
1.74452e+07
1.74978e+07
1.74321e+07
1.72487e+07
1.69483e+07
1.65326e+07
1.60033e+07
1.53624e+07
1.46135e+07
1.37614e+07
1.28112e+07
1.17675e+07
1.06343e+07
9.41385e+06
8.10606e+06
6.70878e+06
5.21632e+06
3.62249e+06
1.9523e+06
1.79445e+06
3.53727e+06
5.10487e+06
6.56114e+06
7.92221e+06
9.19497e+06
1.03816e+07
1.14819e+07
1.24937e+07
1.3413e+07
1.42354e+07
1.49559e+07
1.55702e+07
1.60748e+07
1.64678e+07
1.67478e+07
1.69137e+07
1.69648e+07
1.69012e+07
1.67232e+07
1.64319e+07
1.60287e+07
1.55154e+07
1.48941e+07
1.41683e+07
1.33426e+07
1.24218e+07
1.14105e+07
1.03125e+07
9.13022e+06
7.8637e+06
6.51076e+06
5.06443e+06
3.50858e+06
1.77967e+06
1.85722e+06
3.58409e+06
5.16785e+06
6.64324e+06
8.02256e+06
9.31227e+06
1.05145e+07
1.16293e+07
1.26543e+07
1.35857e+07
1.44188e+07
1.51487e+07
1.57709e+07
1.6282e+07
1.66799e+07
1.69635e+07
1.71315e+07
1.71833e+07
1.71188e+07
1.69386e+07
1.66436e+07
1.62352e+07
1.57153e+07
1.5086e+07
1.43508e+07
1.35142e+07
1.25814e+07
1.15569e+07
1.04445e+07
9.24662e+06
7.96324e+06
6.59217e+06
5.12686e+06
3.55499e+06
1.8419e+06
1.91646e+06
3.61788e+06
5.20977e+06
6.69747e+06
8.08908e+06
9.39033e+06
1.06032e+07
1.17277e+07
1.27617e+07
1.37012e+07
1.45415e+07
1.52778e+07
1.59053e+07
1.64207e+07
1.6822e+07
1.71079e+07
1.72773e+07
1.73295e+07
1.72644e+07
1.70827e+07
1.67852e+07
1.63735e+07
1.58492e+07
1.52145e+07
1.44729e+07
1.36291e+07
1.26881e+07
1.16546e+07
1.05325e+07
9.32403e+06
8.0292e+06
6.64592e+06
5.1684e+06
3.58847e+06
1.90063e+06
1.94335e+06
3.6519e+06
5.26684e+06
6.77336e+06
8.18126e+06
9.49733e+06
1.0724e+07
1.18612e+07
1.2907e+07
1.38571e+07
1.4707e+07
1.54516e+07
1.60863e+07
1.66075e+07
1.70134e+07
1.73025e+07
1.74739e+07
1.75266e+07
1.74609e+07
1.72771e+07
1.69762e+07
1.65598e+07
1.60295e+07
1.53876e+07
1.46376e+07
1.37842e+07
1.28326e+07
1.17874e+07
1.06525e+07
9.43036e+06
8.12074e+06
6.72126e+06
5.22504e+06
3.62224e+06
1.9273e+06
1.7757e+06
3.53038e+06
5.10076e+06
6.55656e+06
7.91637e+06
9.1878e+06
1.03732e+07
1.14724e+07
1.24832e+07
1.34017e+07
1.42233e+07
1.49432e+07
1.55569e+07
1.60611e+07
1.64538e+07
1.67336e+07
1.68994e+07
1.69505e+07
1.68869e+07
1.67091e+07
1.6418e+07
1.60151e+07
1.55022e+07
1.48815e+07
1.41563e+07
1.33314e+07
1.24115e+07
1.14012e+07
1.03043e+07
9.12318e+06
7.85796e+06
6.50625e+06
5.06038e+06
3.50178e+06
1.76108e+06
1.90868e+06
3.61291e+06
5.20307e+06
6.68871e+06
8.07837e+06
9.37779e+06
1.0589e+07
1.1712e+07
1.27445e+07
1.36828e+07
1.45219e+07
1.52571e+07
1.58838e+07
1.63985e+07
1.67993e+07
1.70848e+07
1.7254e+07
1.73061e+07
1.72412e+07
1.70597e+07
1.67626e+07
1.63514e+07
1.58278e+07
1.5194e+07
1.44534e+07
1.36107e+07
1.2671e+07
1.1639e+07
1.05184e+07
9.31159e+06
8.01857e+06
6.63723e+06
5.16175e+06
3.58354e+06
1.89292e+06
1.9125e+06
3.62893e+06
5.23338e+06
6.72943e+06
8.12767e+06
9.43482e+06
1.06532e+07
1.17828e+07
1.28216e+07
1.37654e+07
1.46096e+07
1.53493e+07
1.59797e+07
1.64975e+07
1.69007e+07
1.71879e+07
1.73582e+07
1.74106e+07
1.73453e+07
1.71627e+07
1.68638e+07
1.64501e+07
1.59233e+07
1.52857e+07
1.45406e+07
1.3693e+07
1.27477e+07
1.17095e+07
1.05823e+07
9.3683e+06
8.06756e+06
6.67768e+06
5.19186e+06
3.59946e+06
1.89672e+06
1.84131e+06
3.58127e+06
5.16919e+06
6.64568e+06
8.02523e+06
9.31502e+06
1.05174e+07
1.16322e+07
1.26574e+07
1.3589e+07
1.44222e+07
1.51522e+07
1.57746e+07
1.62858e+07
1.66839e+07
1.69675e+07
1.71356e+07
1.71874e+07
1.71229e+07
1.69426e+07
1.66475e+07
1.62391e+07
1.5719e+07
1.50896e+07
1.43542e+07
1.35175e+07
1.25846e+07
1.15599e+07
1.04474e+07
9.24944e+06
7.96596e+06
6.59462e+06
5.12822e+06
3.55222e+06
1.82614e+06
1.75216e+06
3.51108e+06
5.07521e+06
6.52337e+06
7.87582e+06
9.14039e+06
1.03195e+07
1.14129e+07
1.24183e+07
1.33319e+07
1.41492e+07
1.48653e+07
1.54758e+07
1.59774e+07
1.63681e+07
1.66464e+07
1.68114e+07
1.68622e+07
1.6799e+07
1.66221e+07
1.63325e+07
1.59317e+07
1.54214e+07
1.48039e+07
1.40826e+07
1.3262e+07
1.2347e+07
1.1342e+07
1.0251e+07
9.07614e+06
7.81774e+06
6.47334e+06
5.03505e+06
3.48265e+06
1.73774e+06
2.02952e+06
3.68781e+06
5.30854e+06
6.82705e+06
8.24745e+06
9.57531e+06
1.08128e+07
1.196e+07
1.30149e+07
1.39733e+07
1.48306e+07
1.55816e+07
1.62216e+07
1.67471e+07
1.71563e+07
1.74479e+07
1.76206e+07
1.76738e+07
1.76075e+07
1.74222e+07
1.71189e+07
1.6699e+07
1.61643e+07
1.55169e+07
1.47604e+07
1.38997e+07
1.29398e+07
1.18856e+07
1.07408e+07
9.50779e+06
8.1864e+06
6.77445e+06
5.26633e+06
3.65781e+06
2.01274e+06
2.02975e+06
3.68728e+06
5.30746e+06
6.8256e+06
8.24571e+06
9.5733e+06
1.08105e+07
1.19575e+07
1.30122e+07
1.39704e+07
1.48275e+07
1.55784e+07
1.62182e+07
1.67437e+07
1.71528e+07
1.74442e+07
1.76169e+07
1.76702e+07
1.76039e+07
1.74186e+07
1.71153e+07
1.66955e+07
1.61609e+07
1.55137e+07
1.47574e+07
1.38968e+07
1.29372e+07
1.18831e+07
1.07385e+07
9.50579e+06
8.18466e+06
6.77301e+06
5.26525e+06
3.65729e+06
2.01297e+06
2.03114e+06
3.69003e+06
5.31238e+06
6.83214e+06
8.25367e+06
9.58259e+06
1.0821e+07
1.19691e+07
1.30248e+07
1.39839e+07
1.48418e+07
1.55934e+07
1.62339e+07
1.67599e+07
1.71693e+07
1.74611e+07
1.7634e+07
1.76872e+07
1.76208e+07
1.74353e+07
1.71318e+07
1.67116e+07
1.61765e+07
1.55287e+07
1.47716e+07
1.39102e+07
1.29496e+07
1.18945e+07
1.07488e+07
9.51489e+06
8.19252e+06
6.77951e+06
5.27015e+06
3.66001e+06
2.01435e+06
1.83756e+06
3.57071e+06
5.15071e+06
6.62104e+06
7.99535e+06
9.28037e+06
1.04783e+07
1.15891e+07
1.26105e+07
1.35386e+07
1.43688e+07
1.50962e+07
1.57161e+07
1.62254e+07
1.66221e+07
1.69047e+07
1.70721e+07
1.71238e+07
1.70595e+07
1.68799e+07
1.65859e+07
1.6179e+07
1.56608e+07
1.50337e+07
1.4301e+07
1.34674e+07
1.2538e+07
1.15171e+07
1.04087e+07
9.21506e+06
7.9363e+06
6.57015e+06
5.10986e+06
3.54174e+06
1.82242e+06
1.78019e+06
3.53329e+06
5.10428e+06
6.56109e+06
7.92192e+06
9.19431e+06
1.03806e+07
1.14806e+07
1.24922e+07
1.34114e+07
1.42336e+07
1.4954e+07
1.55681e+07
1.60727e+07
1.64657e+07
1.67456e+07
1.69116e+07
1.69627e+07
1.6899e+07
1.67211e+07
1.64298e+07
1.60267e+07
1.55134e+07
1.48922e+07
1.41665e+07
1.3341e+07
1.24204e+07
1.14093e+07
1.03116e+07
9.12963e+06
7.86346e+06
6.51074e+06
5.06387e+06
3.50466e+06
1.76553e+06
1.69483e+06
3.46162e+06
5.01046e+06
6.43945e+06
7.77331e+06
9.02056e+06
1.01836e+07
1.12623e+07
1.22542e+07
1.31555e+07
1.39617e+07
1.46682e+07
1.52706e+07
1.57656e+07
1.61512e+07
1.6426e+07
1.65888e+07
1.6639e+07
1.65766e+07
1.6402e+07
1.61162e+07
1.57206e+07
1.52171e+07
1.46078e+07
1.38961e+07
1.30866e+07
1.21838e+07
1.11924e+07
1.01161e+07
8.95723e+06
7.71606e+06
6.39012e+06
4.97087e+06
3.43363e+06
1.68091e+06
1.83698e+06
3.57805e+06
5.1649e+06
6.6401e+06
8.01842e+06
9.30706e+06
1.05084e+07
1.16222e+07
1.26465e+07
1.35772e+07
1.44097e+07
1.51392e+07
1.57609e+07
1.62717e+07
1.66694e+07
1.69528e+07
1.71208e+07
1.71725e+07
1.71081e+07
1.6928e+07
1.66331e+07
1.6225e+07
1.57054e+07
1.50765e+07
1.43418e+07
1.35059e+07
1.25738e+07
1.155e+07
1.04385e+07
9.24153e+06
7.9592e+06
6.58909e+06
5.12396e+06
3.54903e+06
1.82184e+06
1.88216e+06
3.59798e+06
5.1844e+06
6.66454e+06
8.04871e+06
9.343e+06
1.05495e+07
1.16681e+07
1.26967e+07
1.36313e+07
1.44672e+07
1.51996e+07
1.5824e+07
1.63367e+07
1.6736e+07
1.70205e+07
1.7189e+07
1.7241e+07
1.71763e+07
1.69954e+07
1.66995e+07
1.62898e+07
1.57682e+07
1.51368e+07
1.4399e+07
1.35596e+07
1.26235e+07
1.15954e+07
1.04792e+07
9.27709e+06
7.98917e+06
6.61327e+06
5.14325e+06
3.56875e+06
1.86663e+06
1.71281e+06
3.47635e+06
5.02916e+06
6.46359e+06
7.80282e+06
9.05509e+06
1.02228e+07
1.13057e+07
1.23015e+07
1.32064e+07
1.40158e+07
1.47251e+07
1.53298e+07
1.58267e+07
1.62138e+07
1.64896e+07
1.6653e+07
1.67034e+07
1.66408e+07
1.64655e+07
1.61786e+07
1.57816e+07
1.5276e+07
1.46644e+07
1.39499e+07
1.31372e+07
1.22309e+07
1.12356e+07
1.0155e+07
8.99151e+06
7.74534e+06
6.41406e+06
4.9894e+06
3.44823e+06
1.69873e+06
1.68151e+06
3.44924e+06
4.99432e+06
6.41856e+06
7.74781e+06
8.99076e+06
1.01499e+07
1.12248e+07
1.22133e+07
1.31116e+07
1.39151e+07
1.46192e+07
1.52196e+07
1.5713e+07
1.60973e+07
1.63712e+07
1.65334e+07
1.65835e+07
1.65213e+07
1.63473e+07
1.60624e+07
1.56682e+07
1.51662e+07
1.4559e+07
1.38498e+07
1.30429e+07
1.21433e+07
1.11552e+07
1.00826e+07
8.92766e+06
7.69077e+06
6.36942e+06
4.95487e+06
3.42136e+06
1.6677e+06
1.7519e+06
3.50417e+06
5.06188e+06
6.50538e+06
7.85403e+06
9.11521e+06
1.02911e+07
1.13816e+07
1.23843e+07
1.32955e+07
1.41105e+07
1.48246e+07
1.54334e+07
1.59337e+07
1.63233e+07
1.66009e+07
1.67654e+07
1.68161e+07
1.6753e+07
1.65766e+07
1.62878e+07
1.58881e+07
1.53793e+07
1.47635e+07
1.40441e+07
1.32257e+07
1.23131e+07
1.13108e+07
1.02227e+07
9.05107e+06
7.79608e+06
6.45546e+06
5.02181e+06
3.47578e+06
1.73748e+06
1.9335e+06
3.64405e+06
5.2551e+06
6.75794e+06
8.16246e+06
9.47542e+06
1.06992e+07
1.18338e+07
1.28771e+07
1.3825e+07
1.46729e+07
1.54158e+07
1.6049e+07
1.6569e+07
1.69739e+07
1.72624e+07
1.74334e+07
1.7486e+07
1.74204e+07
1.7237e+07
1.69369e+07
1.65214e+07
1.59924e+07
1.53519e+07
1.46036e+07
1.37522e+07
1.28029e+07
1.17601e+07
1.06279e+07
9.40861e+06
8.10209e+06
6.70596e+06
5.2134e+06
3.61445e+06
1.91754e+06
2.00286e+06
3.66906e+06
5.27981e+06
6.78908e+06
8.2012e+06
9.52148e+06
1.07519e+07
1.18926e+07
1.29415e+07
1.38945e+07
1.47468e+07
1.54936e+07
1.613e+07
1.66526e+07
1.70594e+07
1.73493e+07
1.75211e+07
1.7574e+07
1.7508e+07
1.73237e+07
1.70221e+07
1.66046e+07
1.6073e+07
1.54293e+07
1.46771e+07
1.38212e+07
1.28668e+07
1.18184e+07
1.06802e+07
9.45419e+06
8.14043e+06
6.73677e+06
5.23783e+06
3.63921e+06
1.98631e+06
1.97724e+06
3.66146e+06
5.27358e+06
6.78143e+06
8.19151e+06
9.50976e+06
1.07384e+07
1.18774e+07
1.29248e+07
1.38765e+07
1.47277e+07
1.54734e+07
1.6109e+07
1.66309e+07
1.70373e+07
1.73268e+07
1.74984e+07
1.75512e+07
1.74854e+07
1.73013e+07
1.70001e+07
1.65831e+07
1.60521e+07
1.54092e+07
1.4658e+07
1.38034e+07
1.28503e+07
1.18035e+07
1.06669e+07
9.44273e+06
8.1309e+06
6.72921e+06
5.23168e+06
3.6317e+06
1.9609e+06
1.65831e+06
3.42745e+06
4.9663e+06
6.38241e+06
7.70366e+06
8.93913e+06
1.00913e+07
1.11599e+07
1.21426e+07
1.30355e+07
1.38343e+07
1.45342e+07
1.51311e+07
1.56217e+07
1.60038e+07
1.62761e+07
1.64375e+07
1.64872e+07
1.64254e+07
1.62524e+07
1.59692e+07
1.55772e+07
1.50782e+07
1.44744e+07
1.37694e+07
1.29673e+07
1.2073e+07
1.10908e+07
1.00245e+07
8.87644e+06
7.64699e+06
6.33358e+06
4.9271e+06
3.39976e+06
1.6447e+06
1.63663e+06
3.40495e+06
4.93667e+06
6.34412e+06
7.65693e+06
8.88451e+06
1.00294e+07
1.10913e+07
1.20678e+07
1.29552e+07
1.3749e+07
1.44445e+07
1.50377e+07
1.55253e+07
1.59051e+07
1.61758e+07
1.63361e+07
1.63856e+07
1.63242e+07
1.61522e+07
1.58707e+07
1.54811e+07
1.49852e+07
1.43852e+07
1.36845e+07
1.28874e+07
1.19987e+07
1.10226e+07
9.96304e+06
8.82228e+06
7.60065e+06
6.2956e+06
4.89772e+06
3.37747e+06
1.62321e+06
1.78469e+06
3.53755e+06
5.11028e+06
6.56893e+06
7.93148e+06
9.20546e+06
1.03932e+07
1.14946e+07
1.25074e+07
1.34277e+07
1.42509e+07
1.49722e+07
1.55871e+07
1.60923e+07
1.64858e+07
1.67661e+07
1.69322e+07
1.69834e+07
1.69197e+07
1.67415e+07
1.64499e+07
1.60462e+07
1.55323e+07
1.49104e+07
1.41838e+07
1.33572e+07
1.24355e+07
1.14232e+07
1.03242e+07
9.14071e+06
7.87295e+06
6.51852e+06
5.06981e+06
3.50888e+06
1.77e+06
1.92299e+06
3.62615e+06
5.22344e+06
6.71564e+06
8.11117e+06
9.41598e+06
1.06322e+07
1.17597e+07
1.27966e+07
1.37386e+07
1.45812e+07
1.53195e+07
1.59487e+07
1.64655e+07
1.68679e+07
1.71546e+07
1.73244e+07
1.73768e+07
1.73116e+07
1.71293e+07
1.6831e+07
1.64182e+07
1.58925e+07
1.5256e+07
1.45124e+07
1.36663e+07
1.27228e+07
1.16864e+07
1.05613e+07
9.34952e+06
8.05114e+06
6.66396e+06
5.18196e+06
3.59667e+06
1.90711e+06
1.77925e+06
3.52702e+06
5.09298e+06
6.54598e+06
7.9036e+06
9.17308e+06
1.03567e+07
1.14542e+07
1.24635e+07
1.33806e+07
1.42009e+07
1.49197e+07
1.55324e+07
1.60358e+07
1.64279e+07
1.67072e+07
1.68728e+07
1.69238e+07
1.68603e+07
1.66828e+07
1.63922e+07
1.59899e+07
1.54778e+07
1.4858e+07
1.4134e+07
1.33103e+07
1.23919e+07
1.13831e+07
1.02879e+07
9.10859e+06
7.8453e+06
6.49574e+06
5.05264e+06
3.49844e+06
1.7646e+06
1.97317e+06
3.66207e+06
5.27617e+06
6.78503e+06
8.19584e+06
9.51473e+06
1.07439e+07
1.18835e+07
1.29314e+07
1.38835e+07
1.47351e+07
1.54812e+07
1.61171e+07
1.66393e+07
1.70459e+07
1.73356e+07
1.75072e+07
1.75601e+07
1.74942e+07
1.731e+07
1.70086e+07
1.65914e+07
1.60602e+07
1.5417e+07
1.46655e+07
1.38104e+07
1.28568e+07
1.18095e+07
1.06723e+07
9.44757e+06
8.13516e+06
6.7328e+06
5.23427e+06
3.6323e+06
1.95687e+06
1.73113e+06
3.48832e+06
5.04245e+06
6.48044e+06
7.8235e+06
9.07939e+06
1.02505e+07
1.13365e+07
1.23351e+07
1.32426e+07
1.40543e+07
1.47655e+07
1.53719e+07
1.58702e+07
1.62583e+07
1.65348e+07
1.66986e+07
1.67492e+07
1.66864e+07
1.65106e+07
1.6223e+07
1.58249e+07
1.5318e+07
1.47046e+07
1.39881e+07
1.31731e+07
1.22643e+07
1.12661e+07
1.01825e+07
9.01564e+06
7.76584e+06
6.43075e+06
5.00255e+06
3.46009e+06
1.71689e+06
1.87607e+06
3.6058e+06
5.20242e+06
6.68905e+06
8.07826e+06
9.37701e+06
1.05876e+07
1.17101e+07
1.27423e+07
1.36802e+07
1.45191e+07
1.52541e+07
1.58806e+07
1.63952e+07
1.6796e+07
1.70815e+07
1.72507e+07
1.73028e+07
1.72379e+07
1.70564e+07
1.67594e+07
1.63482e+07
1.58247e+07
1.5191e+07
1.44506e+07
1.36082e+07
1.2669e+07
1.16373e+07
1.05172e+07
9.31095e+06
8.01856e+06
6.63764e+06
5.16117e+06
3.57653e+06
1.8606e+06
1.80617e+06
3.5455e+06
5.11596e+06
6.57565e+06
7.93994e+06
9.21564e+06
1.0405e+07
1.15079e+07
1.2522e+07
1.34435e+07
1.42678e+07
1.499e+07
1.56056e+07
1.61113e+07
1.65052e+07
1.67858e+07
1.69521e+07
1.70034e+07
1.69396e+07
1.67613e+07
1.64693e+07
1.60652e+07
1.55507e+07
1.4928e+07
1.42005e+07
1.33729e+07
1.245e+07
1.14364e+07
1.03359e+07
9.15083e+06
7.88133e+06
6.52514e+06
5.07541e+06
3.51676e+06
1.79129e+06
2.01137e+06
3.67258e+06
5.28385e+06
6.79428e+06
8.20762e+06
9.52905e+06
1.07605e+07
1.19022e+07
1.2952e+07
1.39058e+07
1.47588e+07
1.55062e+07
1.61431e+07
1.66662e+07
1.70733e+07
1.73634e+07
1.75354e+07
1.75883e+07
1.75222e+07
1.73378e+07
1.7036e+07
1.66181e+07
1.60861e+07
1.54419e+07
1.4689e+07
1.38324e+07
1.28772e+07
1.18279e+07
1.06887e+07
9.46169e+06
8.14679e+06
6.74192e+06
5.24184e+06
3.64269e+06
1.99474e+06
1.93858e+06
3.64224e+06
5.24967e+06
6.75048e+06
8.15353e+06
9.4652e+06
1.06878e+07
1.18212e+07
1.28634e+07
1.38104e+07
1.46575e+07
1.53996e+07
1.60321e+07
1.65516e+07
1.69561e+07
1.72442e+07
1.7415e+07
1.74676e+07
1.74021e+07
1.72189e+07
1.6919e+07
1.6504e+07
1.59755e+07
1.53358e+07
1.45883e+07
1.37377e+07
1.27893e+07
1.17476e+07
1.06165e+07
9.39842e+06
8.09319e+06
6.69854e+06
5.208e+06
3.61264e+06
1.92257e+06
1.82849e+06
3.56513e+06
5.14381e+06
6.61213e+06
7.98443e+06
9.26756e+06
1.04638e+07
1.1573e+07
1.25929e+07
1.35197e+07
1.43487e+07
1.5075e+07
1.56941e+07
1.62027e+07
1.65988e+07
1.6881e+07
1.70482e+07
1.70998e+07
1.70356e+07
1.68562e+07
1.65627e+07
1.61563e+07
1.56388e+07
1.50126e+07
1.4281e+07
1.34486e+07
1.25204e+07
1.1501e+07
1.03942e+07
9.20235e+06
7.92547e+06
6.56132e+06
5.10303e+06
3.53621e+06
1.81341e+06
1.60452e+06
3.3739e+06
4.89791e+06
6.29441e+06
7.59623e+06
8.81349e+06
9.94886e+06
1.10019e+07
1.19704e+07
1.28504e+07
1.36376e+07
1.43275e+07
1.49158e+07
1.53995e+07
1.57763e+07
1.60448e+07
1.6204e+07
1.62531e+07
1.61921e+07
1.60215e+07
1.57423e+07
1.53558e+07
1.48638e+07
1.42687e+07
1.35738e+07
1.27833e+07
1.19019e+07
1.09339e+07
9.88306e+06
8.7518e+06
7.54045e+06
6.24632e+06
4.85931e+06
3.3467e+06
1.59138e+06
2.02042e+06
3.69901e+06
5.33398e+06
6.86146e+06
8.28891e+06
9.62309e+06
1.08664e+07
1.20191e+07
1.3079e+07
1.40421e+07
1.49034e+07
1.56581e+07
1.63012e+07
1.68294e+07
1.72406e+07
1.75336e+07
1.77072e+07
1.77606e+07
1.7694e+07
1.75078e+07
1.72029e+07
1.67809e+07
1.62436e+07
1.55931e+07
1.4833e+07
1.39681e+07
1.30036e+07
1.19443e+07
1.0794e+07
9.55519e+06
8.22755e+06
6.80864e+06
5.29162e+06
3.66894e+06
2.00374e+06
2.02423e+06
3.69517e+06
5.32464e+06
6.84872e+06
8.27355e+06
9.60538e+06
1.08466e+07
1.19972e+07
1.30553e+07
1.40166e+07
1.48765e+07
1.56298e+07
1.62718e+07
1.67989e+07
1.72094e+07
1.75019e+07
1.76752e+07
1.77286e+07
1.7662e+07
1.74761e+07
1.71718e+07
1.67506e+07
1.62143e+07
1.55649e+07
1.48061e+07
1.39428e+07
1.298e+07
1.19225e+07
1.07743e+07
9.53766e+06
8.21232e+06
6.79598e+06
5.28233e+06
3.66513e+06
2.00751e+06
1.79417e+06
3.5435e+06
5.11736e+06
6.57802e+06
7.94262e+06
9.21853e+06
1.04081e+07
1.15111e+07
1.25254e+07
1.34471e+07
1.42715e+07
1.49939e+07
1.56097e+07
1.61156e+07
1.65096e+07
1.67903e+07
1.69566e+07
1.70079e+07
1.69441e+07
1.67657e+07
1.64737e+07
1.60694e+07
1.55548e+07
1.49319e+07
1.42043e+07
1.33765e+07
1.24534e+07
1.14396e+07
1.03389e+07
9.1537e+06
7.88401e+06
6.52752e+06
5.07682e+06
3.51478e+06
1.77939e+06
2.03254e+06
3.68414e+06
5.30037e+06
6.81603e+06
8.2342e+06
9.56003e+06
1.07956e+07
1.19411e+07
1.29944e+07
1.39514e+07
1.48074e+07
1.55572e+07
1.61962e+07
1.67208e+07
1.71294e+07
1.74205e+07
1.75929e+07
1.76461e+07
1.75799e+07
1.73948e+07
1.7092e+07
1.66728e+07
1.61389e+07
1.54926e+07
1.47372e+07
1.38778e+07
1.29195e+07
1.18668e+07
1.07237e+07
9.49262e+06
8.17322e+06
6.76349e+06
5.2582e+06
3.65417e+06
2.01573e+06
1.84796e+06
3.58149e+06
5.16713e+06
6.6427e+06
8.02175e+06
9.31114e+06
1.05131e+07
1.16276e+07
1.26524e+07
1.35836e+07
1.44165e+07
1.51463e+07
1.57684e+07
1.62794e+07
1.66773e+07
1.69608e+07
1.71288e+07
1.71806e+07
1.71161e+07
1.69359e+07
1.6641e+07
1.62327e+07
1.57128e+07
1.50837e+07
1.43485e+07
1.35122e+07
1.25796e+07
1.15552e+07
1.04432e+07
9.24553e+06
7.96247e+06
6.59166e+06
5.12617e+06
3.55243e+06
1.83272e+06
1.9889e+06
3.67969e+06
5.30596e+06
6.82466e+06
8.24396e+06
9.5706e+06
1.0807e+07
1.19532e+07
1.30073e+07
1.39649e+07
1.48215e+07
1.5572e+07
1.62116e+07
1.67368e+07
1.71458e+07
1.74372e+07
1.76099e+07
1.7663e+07
1.75968e+07
1.74115e+07
1.71084e+07
1.66887e+07
1.61543e+07
1.55074e+07
1.47515e+07
1.38914e+07
1.29323e+07
1.18788e+07
1.0735e+07
9.50309e+06
8.18295e+06
6.77214e+06
5.26383e+06
3.64979e+06
1.97248e+06
1.9061e+06
3.61618e+06
5.21093e+06
6.69946e+06
8.0913e+06
9.39262e+06
1.06056e+07
1.17303e+07
1.27644e+07
1.37041e+07
1.45446e+07
1.5281e+07
1.59086e+07
1.6424e+07
1.68254e+07
1.71114e+07
1.72809e+07
1.73331e+07
1.72681e+07
1.70863e+07
1.67888e+07
1.63769e+07
1.58524e+07
1.52176e+07
1.44759e+07
1.3632e+07
1.26909e+07
1.16573e+07
1.0535e+07
9.32646e+06
8.03148e+06
6.64792e+06
5.16956e+06
3.58681e+06
1.89037e+06
1.89914e+06
3.6075e+06
5.19618e+06
6.67977e+06
8.06741e+06
9.36494e+06
1.05744e+07
1.16958e+07
1.27269e+07
1.36638e+07
1.45017e+07
1.52359e+07
1.58617e+07
1.63757e+07
1.67759e+07
1.70611e+07
1.723e+07
1.72821e+07
1.72172e+07
1.7036e+07
1.67393e+07
1.63287e+07
1.58058e+07
1.51729e+07
1.44333e+07
1.35918e+07
1.26535e+07
1.16229e+07
1.05039e+07
9.29885e+06
8.00771e+06
6.62837e+06
5.15492e+06
3.57818e+06
1.88346e+06
1.93011e+06
3.63302e+06
5.23434e+06
6.73009e+06
8.12875e+06
9.43643e+06
1.06553e+07
1.17853e+07
1.28244e+07
1.37685e+07
1.4613e+07
1.53528e+07
1.59834e+07
1.65013e+07
1.69046e+07
1.71919e+07
1.73621e+07
1.74146e+07
1.73492e+07
1.71666e+07
1.68676e+07
1.64539e+07
1.5927e+07
1.52892e+07
1.4544e+07
1.3696e+07
1.27504e+07
1.17119e+07
1.05842e+07
9.36984e+06
8.06859e+06
6.6783e+06
5.19279e+06
3.60349e+06
1.91418e+06
1.90043e+06
3.62043e+06
5.22142e+06
6.71376e+06
8.10853e+06
9.41247e+06
1.06279e+07
1.17548e+07
1.2791e+07
1.37326e+07
1.45747e+07
1.53126e+07
1.59415e+07
1.64581e+07
1.68603e+07
1.71469e+07
1.73167e+07
1.7369e+07
1.73039e+07
1.71217e+07
1.68235e+07
1.64108e+07
1.58853e+07
1.52492e+07
1.45059e+07
1.36603e+07
1.27173e+07
1.16816e+07
1.05571e+07
9.34612e+06
8.04857e+06
6.66213e+06
5.18e+06
3.59103e+06
1.88475e+06
1.99565e+06
3.66401e+06
5.27254e+06
6.7796e+06
8.18959e+06
9.50784e+06
1.07365e+07
1.18755e+07
1.29228e+07
1.38745e+07
1.47256e+07
1.54713e+07
1.61067e+07
1.66285e+07
1.70349e+07
1.73244e+07
1.74959e+07
1.75487e+07
1.74829e+07
1.72989e+07
1.69977e+07
1.65808e+07
1.60498e+07
1.54071e+07
1.46559e+07
1.38013e+07
1.28483e+07
1.18016e+07
1.0665e+07
9.44082e+06
8.12897e+06
6.72735e+06
5.23061e+06
3.63421e+06
1.97915e+06
1.96744e+06
3.64964e+06
5.25346e+06
6.75464e+06
8.15902e+06
9.4721e+06
1.06959e+07
1.18305e+07
1.28737e+07
1.38216e+07
1.46694e+07
1.54122e+07
1.60453e+07
1.65652e+07
1.69699e+07
1.72583e+07
1.74292e+07
1.74818e+07
1.74162e+07
1.72329e+07
1.69328e+07
1.65175e+07
1.59886e+07
1.53484e+07
1.46002e+07
1.37488e+07
1.27994e+07
1.17567e+07
1.06246e+07
9.40519e+06
8.09858e+06
6.70261e+06
5.21171e+06
3.61996e+06
1.95119e+06
2.0144e+06
3.67398e+06
5.2856e+06
6.79655e+06
8.2104e+06
9.53232e+06
1.07643e+07
1.19063e+07
1.29565e+07
1.39106e+07
1.4764e+07
1.55116e+07
1.61488e+07
1.6672e+07
1.70793e+07
1.73695e+07
1.75415e+07
1.75944e+07
1.75284e+07
1.73439e+07
1.70419e+07
1.66239e+07
1.60917e+07
1.54473e+07
1.46942e+07
1.38372e+07
1.28817e+07
1.1832e+07
1.06924e+07
9.46494e+06
8.14955e+06
6.74417e+06
5.24357e+06
3.64407e+06
1.99774e+06
1.75516e+06
3.50627e+06
5.06465e+06
6.50905e+06
7.8585e+06
9.12039e+06
1.0297e+07
1.13881e+07
1.23914e+07
1.33031e+07
1.41186e+07
1.48332e+07
1.54424e+07
1.59429e+07
1.63327e+07
1.66105e+07
1.67751e+07
1.68258e+07
1.67627e+07
1.65862e+07
1.62973e+07
1.58974e+07
1.53881e+07
1.4772e+07
1.40522e+07
1.32333e+07
1.23202e+07
1.13174e+07
1.02287e+07
9.05633e+06
7.80056e+06
6.4591e+06
5.02455e+06
3.47787e+06
1.74072e+06
1.94693e+06
3.64996e+06
5.26186e+06
6.76661e+06
8.17316e+06
9.48804e+06
1.07136e+07
1.18498e+07
1.28945e+07
1.38438e+07
1.46929e+07
1.54368e+07
1.60709e+07
1.65916e+07
1.69971e+07
1.72859e+07
1.74571e+07
1.75098e+07
1.74441e+07
1.72605e+07
1.69599e+07
1.65439e+07
1.60142e+07
1.53729e+07
1.46235e+07
1.37709e+07
1.28202e+07
1.1776e+07
1.06422e+07
9.42111e+06
8.11268e+06
6.71455e+06
5.22009e+06
3.62031e+06
1.93086e+06
1.99432e+06
3.67726e+06
5.29888e+06
6.81491e+06
8.23223e+06
9.55713e+06
1.07919e+07
1.19367e+07
1.29893e+07
1.39457e+07
1.48012e+07
1.55506e+07
1.61893e+07
1.67138e+07
1.71222e+07
1.74132e+07
1.75856e+07
1.76388e+07
1.75726e+07
1.73876e+07
1.70849e+07
1.66658e+07
1.61321e+07
1.54861e+07
1.47312e+07
1.38722e+07
1.29144e+07
1.18624e+07
1.072e+07
9.48975e+06
8.17132e+06
6.76244e+06
5.25678e+06
3.64738e+06
1.97784e+06
2.03177e+06
3.68592e+06
5.30424e+06
6.82126e+06
8.2405e+06
9.56731e+06
1.08038e+07
1.19502e+07
1.30042e+07
1.39619e+07
1.48184e+07
1.55689e+07
1.62083e+07
1.67334e+07
1.71423e+07
1.74335e+07
1.76061e+07
1.76593e+07
1.75931e+07
1.74079e+07
1.71048e+07
1.66853e+07
1.6151e+07
1.55042e+07
1.47483e+07
1.38882e+07
1.29292e+07
1.18757e+07
1.07318e+07
9.49984e+06
8.17949e+06
6.76869e+06
5.26205e+06
3.65593e+06
2.01497e+06
1.84144e+06